53
HexamerDFTdata/HexamerOutputs/1-44_AB3.log	Energy: -2356225.1721879
C         11.00193       -0.99516        0.27979
S         10.04826        0.38343       -0.18251
C         10.21005       -2.02317        0.70986
C          8.82152       -1.71054        0.69576
C          8.54707       -0.43422        0.24552
C          7.28398        0.23659        0.09673
S          5.75135       -0.64790        0.12631
C          6.97954        1.57232       -0.08134
N          7.62662        2.79228       -0.19230
C          6.63268        3.74423       -0.33573
N          5.41722        3.26218       -0.33735
C          5.59670        1.89396       -0.17779
C          4.75504        0.78969       -0.07815
C          3.32519        0.76069       -0.12792
S          2.39105       -0.72293        0.03698
C          2.47124        1.83940       -0.30295
C          1.10571        1.49090       -0.32116
C          0.86405        0.13516       -0.15809
C         -0.37537       -0.57737       -0.12909
S         -1.93476        0.26475       -0.10572
C         -0.64765       -1.93512       -0.11494
N          0.03044       -3.14256       -0.12361
C         -0.93895       -4.12942       -0.11384
N         -2.16713       -3.68083       -0.09321
C         -2.02144       -2.29962       -0.09432
C         -2.89248       -1.21307       -0.09011
C         -4.32339       -1.22716       -0.07378
S         -5.29535        0.24044       -0.09979
C         -5.14901       -2.34037       -0.04060
C         -6.52534       -2.02905       -0.01198
C         -6.79888       -0.67273       -0.02824
C         -8.06193        0.01207       -0.00064
S         -9.58882       -0.82902       -0.30201
C         -8.36765        1.33718        0.23962
N         -7.73274        2.53028        0.54026
C         -8.73669        3.47819        0.66665
N         -9.94536        3.02834        0.47050
C         -9.75902        1.67375        0.19783
C        -10.56058        0.59378       -0.08358
H         12.07953       -0.95679        0.20032
H         10.60523       -2.97782        1.04018
H          8.04800       -2.39484        1.02736
H          8.61836        2.96600       -0.12336
H          6.88186        4.79314       -0.44006
H          2.85036        2.84785       -0.42076
H          0.30852        2.21270       -0.46420
H          1.02852       -3.28410       -0.17245
H         -0.66283       -5.17671       -0.12022
H         -4.74482       -3.34580       -0.02573
H         -7.30583       -2.78086        0.03858
H         -6.74716        2.67624        0.70048
H         -8.49285        4.50632        0.90675
H        -11.63601        0.54082       -0.17432
