6
../../gamess-dft/ligands/1-sp01.gamout	Energy:       0.0000000
  H        1.24112       -1.01845       -0.00001
  C        0.66540       -0.09512       -0.00001
  C       -0.66538       -0.09523       -0.00001
  H       -1.24106       -1.01848       -0.00001
  H        1.24121        0.82806       -0.00002
  H       -1.24126        0.82804       -0.00002
