42
TetramerDFTdata/TetramerOutputs/12-52_ABAB.log	Energy: -2669621.3718110
C         -7.43531        0.46562        0.46439
S         -6.10004       -0.52469        0.91658
C         -7.05296        1.55476       -0.26639
C         -5.64368        1.60428       -0.49221
S         -4.86312        2.89944       -1.43611
C         -4.96902        0.53590        0.08371
C         -3.55415        0.22156        0.07941
S         -2.33301        1.49644        0.20282
C         -2.90645       -0.98700        0.03759
S         -3.43364       -2.70414       -0.11527
O         -4.03782       -2.96365       -1.42881
O         -4.13440       -3.14981        1.09920
C         -1.72937       -3.27028       -0.07328
C         -0.85474       -2.25878        0.03664
C         -1.48306       -0.93573        0.08604
C         -0.99443        0.35380        0.17255
C          0.36681        0.84065        0.22932
S          1.68426       -0.05975       -0.47453
C          0.82283        2.02045        0.77983
C          2.23056        2.19305        0.68318
S          3.08296        3.60786        1.35022
C          2.86227        1.13242        0.04657
C          4.26738        0.88901       -0.20573
S          5.37530        2.19482       -0.65841
C          4.97131       -0.28952       -0.21011
S          4.59853       -2.00650        0.18318
O          3.72152       -2.60974       -0.83375
O          4.25921       -2.17045        1.60323
C          6.30658       -2.48939       -0.12017
C          7.07550       -1.44977       -0.47442
C          6.35760       -0.17489       -0.53128
C          6.72794        1.11486       -0.79189
H         -8.43778        0.19247        0.76663
H         -7.74524        2.30087       -0.64014
H         -6.00325        3.34685       -2.00147
H         -1.53490       -4.33404       -0.12268
H          0.21884       -2.40617        0.09002
H          0.16955        2.73047        1.27503
H          2.07461        3.99665        2.15760
H          6.57552       -3.53154       -0.00354
H          8.13428       -1.53162       -0.69907
H          7.70700        1.50359       -1.03930
