22
DimerDFTdata/DimerOutputs/3-24.log	Energy: -1031025.7240453
C         -3.37050       -0.82786        0.53495
S         -1.86549       -1.66166        0.73606
C         -3.19487        0.42033        0.01160
C         -1.81995        0.70281       -0.24428
Cl        -1.32552        2.20847       -0.97946
C         -0.94696       -0.30990        0.08691
C          0.50423       -0.38073       -0.04059
S          1.23558       -1.64489       -1.01710
C          1.46401        0.43862        0.51597
C          1.17465        1.59115        1.43732
C          2.80230        0.05238        0.14562
C          4.03592        0.77793        0.61102
C          2.82125       -1.05021       -0.66430
H         -4.29971       -1.30742        0.81217
H         -3.99529        1.11796       -0.20314
H          1.37728        2.55445        0.95180
H          1.80286        1.54261        2.33530
H          0.12920        1.59618        1.75444
H          4.12177        0.76934        1.70531
H          4.02508        1.83028        0.29991
H          4.94102        0.31808        0.20301
H          3.68976       -1.54772       -1.07660
