18
3E5E-octa-1357-tetraene.out	Energy:    -310.5865802
C         -4.29241        0.21257        0.00020
C         -3.10170       -0.39783        0.00017
C         -1.83083        0.28536        0.00004
C         -0.63389       -0.33740        0.00002
C          0.63389        0.33740       -0.00009
C          1.83083       -0.28536       -0.00007
C          3.10170        0.39783       -0.00016
C          4.29241       -0.21257       -0.00012
H         -4.37379        1.29247        0.00013
H         -5.21591       -0.34848        0.00031
H         -3.06637       -1.48314        0.00025
H         -1.85779        1.37140       -0.00005
H         -0.61174       -1.42368        0.00011
H          0.61174        1.42368       -0.00019
H          1.85779       -1.37140        0.00003
H          3.06637        1.48314       -0.00027
H          5.21591        0.34848       -0.00019
H          4.37379       -1.29247       -0.00002
