30
benzo-a-anthracene.out	Energy:    -692.7216954
C          0.35540        0.07740        0.00010
C         -0.05290       -1.27900        0.00010
C          1.76250        0.38750        0.00000
C         -2.04340        0.71890        0.00000
C         -2.41890       -0.63660       -0.00020
C          2.70590       -0.67300        0.00010
C         -0.67540        1.05190        0.00020
C         -1.41760       -1.61680       -0.00010
C          0.90560       -2.29590        0.00000
C          2.26410       -1.99790        0.00010
C          2.28820        1.70420       -0.00030
C          4.08550       -0.40460        0.00010
C         -3.04340        1.70690        0.00010
C         -3.78280       -0.97590       -0.00030
C          3.66270        1.95760       -0.00010
C          4.56160        0.90260        0.00000
C         -4.39380        1.35680        0.00020
C         -4.76340        0.01600        0.00000
H         -0.42020        2.11030        0.00030
H         -1.70780       -2.66810       -0.00010
H          0.60550       -3.34230        0.00000
H          2.97580       -2.82140        0.00010
H          1.63290        2.57130       -0.00050
H          4.80750       -1.21930        0.00000
H         -2.77690        2.76190        0.00030
H         -4.09280       -2.01880       -0.00050
H          4.02460        2.98170       -0.00030
H          5.63030        1.09420        0.00000
H         -5.15530        2.13110        0.00040
H         -5.81400       -0.25900       -0.00010
