32
benzo-a-pyrene.out	Energy:    -768.9101837
C          0.30388        0.21654        0.00001
C          1.71007       -0.06207        0.00002
C         -0.62397       -0.82359        0.00000
C         -0.13593        1.58220        0.00000
C         -2.02980       -0.52034       -0.00001
C          2.16431       -1.39074        0.00002
C          2.65235        0.99663        0.00002
C         -2.43784        0.82799       -0.00002
C         -1.46772        1.85819       -0.00001
C         -0.12596       -2.17228        0.00001
C          0.86250        2.63816        0.00001
C          1.19075       -2.44069        0.00001
C          2.16606        2.36586        0.00002
C          3.54234       -1.65061        0.00003
C          4.00029        0.70445        0.00003
C         -3.04180       -1.51847       -0.00002
C         -3.82285        1.14287       -0.00004
C          4.44424       -0.61770        0.00003
C         -4.35970       -1.18955       -0.00004
C         -4.76170        0.16509       -0.00005
H         -1.80117        2.88129       -0.00001
H         -0.81581       -2.99233        0.00000
H          0.51631        3.65658        0.00001
H          1.53267       -3.46063        0.00002
H          2.89093        3.16061        0.00003
H          3.88472       -2.67037        0.00003
H          4.71595        1.50769        0.00003
H         -2.77352       -2.55622       -0.00002
H         -4.11449        2.17840       -0.00004
H          5.49951       -0.82439        0.00003
H         -5.10437       -1.96528       -0.00005
H         -5.80792        0.41309       -0.00006
