26
pyrene-B3LYP.out	Energy:    -615.3689295
C          0.00000        0.00000        0.71092
C          0.00000        0.00000       -0.71092
C          0.00000        1.23160        1.42388
C          0.00000        1.23160       -1.42388
C          0.00000       -1.23160        1.42388
C          0.00000       -1.23160       -1.42388
C          0.00000        2.45522        0.67772
C          0.00000        2.45522       -0.67772
C          0.00000       -2.45522        0.67772
C          0.00000       -2.45522       -0.67772
C          0.00000        1.20602        2.82260
C          0.00000        1.20602       -2.82260
C          0.00000       -1.20602        2.82260
C          0.00000       -1.20602       -2.82260
C          0.00000        0.00000        3.51044
C          0.00000        0.00000       -3.51044
H          0.00000        3.39012        1.22374
H          0.00000        3.39012       -1.22374
H          0.00000       -3.39012        1.22374
H          0.00000       -3.39012       -1.22374
H          0.00000        2.14115        3.36783
H          0.00000        2.14115       -3.36783
H          0.00000       -2.14115        3.36783
H          0.00000       -2.14115       -3.36783
H          0.00000        0.00000        4.59223
H          0.00000        0.00000       -4.59223
